                                                                        
Freq      RHF                                                         STO-3G              
Number of atoms                            I                6
Info1-9                                    I   N=           9
          12          12           0           0           0         100
           6           1           2
Charge                                     I                0
Multiplicity                               I                1
Number of electrons                        I               16
Number of alpha electrons                  I                8
Number of beta electrons                   I                8
Number of basis functions                  I               14
Number of independent functions            I               14
Number of point charges in /Mol/           I                0
Number of translation vectors              I                0
Atomic numbers                             I   N=           6
           6           6           1           1           1           1
Nuclear charges                            R   N=           6
  6.00000000E+00  6.00000000E+00  1.00000000E+00  1.00000000E+00  1.00000000E+00
  1.00000000E+00
Current cartesian coordinates              R   N=          18
  1.23401951E+00  0.00000000E+00 -4.51070069E+00 -1.23401951E+00  0.00000000E+00
 -4.51070069E+00  2.32286648E+00  0.00000000E+00 -2.78008572E+00  2.32286648E+00
  0.00000000E+00 -6.24131566E+00 -2.32286648E+00  0.00000000E+00 -2.78008572E+00
 -2.32286648E+00  0.00000000E+00 -6.24131566E+00
Force Field                                I                0
Int Atom Types                             I   N=           6
           0           0           0           0           0           0
MM charges                                 R   N=           6
  0.00000000E+00  0.00000000E+00  0.00000000E+00  0.00000000E+00  0.00000000E+00
  0.00000000E+00
Integer atomic weights                     I   N=           6
          12          12           1           1           1           1
Real atomic weights                        R   N=           6
  1.20000000E+01  1.20000000E+01  1.00782504E+00  1.00782504E+00  1.00782504E+00
  1.00782504E+00
Atom fragment info                         I   N=           6
           0           0           0           0           0           0
Atom residue num                           I   N=           6
           0           0           0           0           0           0
Nuclear spins                              I   N=           6
           0           0           1           1           1           1
Nuclear ZEff                               R   N=           6
 -3.60000000E+00 -3.60000000E+00 -1.00000000E+00 -1.00000000E+00 -1.00000000E+00
 -1.00000000E+00
Nuclear QMom                               R   N=           6
  0.00000000E+00  0.00000000E+00  0.00000000E+00  0.00000000E+00  0.00000000E+00
  0.00000000E+00
Nuclear GFac                               R   N=           6
  0.00000000E+00  0.00000000E+00  2.79284600E+00  2.79284600E+00  2.79284600E+00
  2.79284600E+00
MicOpt                                     I   N=           6
          -1          -1          -1          -1          -1          -1
Number of contracted shells                I                8
Number of primitive shells                 I               24
Pure/Cartesian d shells                    I                0
Pure/Cartesian f shells                    I                0
Highest angular momentum                   I                1
Largest degree of contraction              I                3
Shell types                                I   N=           8
           0          -1           0          -1           0           0
           0           0
Number of primitives per shell             I   N=           8
           3           3           3           3           3           3
           3           3
Shell to atom map                          I   N=           8
           1           1           2           2           3           4
           5           6
Primitive exponents                        R   N=          24
  7.16168373E+01  1.30450963E+01  3.53051216E+00  2.94124936E+00  6.83483096E-01
  2.22289916E-01  7.16168373E+01  1.30450963E+01  3.53051216E+00  2.94124936E+00
  6.83483096E-01  2.22289916E-01  3.42525091E+00  6.23913730E-01  1.68855404E-01
  3.42525091E+00  6.23913730E-01  1.68855404E-01  3.42525091E+00  6.23913730E-01
  1.68855404E-01  3.42525091E+00  6.23913730E-01  1.68855404E-01
Contraction coefficients                   R   N=          24
  1.54328967E-01  5.35328142E-01  4.44634542E-01 -9.99672292E-02  3.99512826E-01
  7.00115469E-01  1.54328967E-01  5.35328142E-01  4.44634542E-01 -9.99672292E-02
  3.99512826E-01  7.00115469E-01  1.54328967E-01  5.35328142E-01  4.44634542E-01
  1.54328967E-01  5.35328142E-01  4.44634542E-01  1.54328967E-01  5.35328142E-01
  4.44634542E-01  1.54328967E-01  5.35328142E-01  4.44634542E-01
P(S=P) Contraction coefficients            R   N=          24
  0.00000000E+00  0.00000000E+00  0.00000000E+00  1.55916275E-01  6.07683719E-01
  3.91957393E-01  0.00000000E+00  0.00000000E+00  0.00000000E+00  1.55916275E-01
  6.07683719E-01  3.91957393E-01  0.00000000E+00  0.00000000E+00  0.00000000E+00
  0.00000000E+00  0.00000000E+00  0.00000000E+00  0.00000000E+00  0.00000000E+00
  0.00000000E+00  0.00000000E+00  0.00000000E+00  0.00000000E+00
Coordinates of each shell                  R   N=          24
  1.23401951E+00  0.00000000E+00 -4.51070069E+00  1.23401951E+00  0.00000000E+00
 -4.51070069E+00 -1.23401951E+00  0.00000000E+00 -4.51070069E+00 -1.23401951E+00
  0.00000000E+00 -4.51070069E+00  2.32286648E+00  0.00000000E+00 -2.78008572E+00
  2.32286648E+00  0.00000000E+00 -6.24131566E+00 -2.32286648E+00  0.00000000E+00
 -2.78008572E+00 -2.32286648E+00  0.00000000E+00 -6.24131566E+00
Constraint Structure                       R   N=          18
  1.23401951E+00  0.00000000E+00 -4.51070069E+00 -1.23401951E+00  0.00000000E+00
 -4.51070069E+00  2.32286648E+00  0.00000000E+00 -2.78008572E+00  2.32286648E+00
  0.00000000E+00 -6.24131566E+00 -2.32286648E+00  0.00000000E+00 -2.78008572E+00
 -2.32286648E+00  0.00000000E+00 -6.24131566E+00
Num ILSW                                   I              100
ILSW                                       I   N=         100
           0           0           0           0           2           0
           0           0           0           0           0          -1
           0           0           0           0           0           0
           0           0           1           0           1           0
           1           1           0           0           0           0
           0           0      100000           0          -1           0
           0           0           0           0           0           0
           0           0           0           1           0           0
           0           0           1           0           0           0
           0           0           4          40           0           0
           0           0           0           0           0           0
           0           0           0           0           0           0
           0           0           0           0           0           0
           0           0           0           0           0           0
           0           0           0           0           0           0
           0           0           0           0           0           0
           0           0           0           0
Num RLSW                                   I               40
RLSW                                       R   N=          40
  1.00000000E+00  1.00000000E+00  1.00000000E+00  1.00000000E+00  1.00000000E+00
  0.00000000E+00  0.00000000E+00  1.00000000E+00  0.00000000E+00  0.00000000E+00
  0.00000000E+00  0.00000000E+00  1.00000000E+00  0.00000000E+00  0.00000000E+00
  0.00000000E+00  0.00000000E+00  1.00000000E+00  0.00000000E+00  0.00000000E+00
  0.00000000E+00  0.00000000E+00  1.00000000E+00  0.00000000E+00  0.00000000E+00
  0.00000000E+00  0.00000000E+00  1.00000000E+00  0.00000000E+00  0.00000000E+00
  0.00000000E+00  0.00000000E+00  1.00000000E+00  0.00000000E+00  0.00000000E+00
  0.00000000E+00  0.00000000E+00  0.00000000E+00  1.00000000E+00  1.00000000E+00
MxBond                                     I                3
NBond                                      I   N=           6
           3           3           1           1           1           1
IBond                                      I   N=          18
           2           3           4           1           5           6
           1           0           0           1           0           0
           2           0           0           2           0           0
RBond                                      R   N=          18
  2.00000000E+00  1.00000000E+00  1.00000000E+00  2.00000000E+00  1.00000000E+00
  1.00000000E+00  1.00000000E+00  0.00000000E+00  0.00000000E+00  1.00000000E+00
  0.00000000E+00  0.00000000E+00  1.00000000E+00  0.00000000E+00  0.00000000E+00
  1.00000000E+00  0.00000000E+00  0.00000000E+00
Virial Ratio                               R      2.005836032663813E+00
SCF Energy                                 R     -7.707395477531364E+01
Total Energy                               R     -7.707395477531364E+01
RMS Force                                  R      4.277866166152053E-07
RMS Density                                R      3.117004576155339E-09
External E-field                           R   N=          35
  0.00000000E+00  0.00000000E+00  0.00000000E+00  0.00000000E+00  0.00000000E+00
  0.00000000E+00  0.00000000E+00  0.00000000E+00  0.00000000E+00  0.00000000E+00
  0.00000000E+00  0.00000000E+00  0.00000000E+00  0.00000000E+00  0.00000000E+00
  0.00000000E+00  0.00000000E+00  0.00000000E+00  0.00000000E+00  0.00000000E+00
  0.00000000E+00  0.00000000E+00  0.00000000E+00  0.00000000E+00  0.00000000E+00
  0.00000000E+00  0.00000000E+00  0.00000000E+00  0.00000000E+00  0.00000000E+00
  0.00000000E+00  0.00000000E+00  0.00000000E+00  0.00000000E+00  0.00000000E+00
IOpCl                                      I                0
IROHF                                      I                0
Alpha Orbital Energies                     R   N=          14
 -1.10217115E+01 -1.10206640E+01 -9.87646405E-01 -7.45718874E-01 -6.05619364E-01
 -5.40226630E-01 -4.58057728E-01 -3.35492533E-01  3.28314285E-01  6.18811135E-01
  6.99887159E-01  7.03621391E-01  9.47733663E-01  1.02787794E+00
Alpha MO coefficients                      R   N=         196
  7.01783694E-01  2.00140457E-02  2.04056461E-03  6.58115722E-16  6.31424759E-16
  7.01783694E-01  2.00140457E-02 -2.04056461E-03  2.70616825E-16  7.95617005E-17
 -4.74948201E-03 -4.74948201E-03 -4.74948201E-03 -4.74948201E-03  7.01445648E-01
  3.15978534E-02 -4.51239533E-03 -1.16635101E-16 -1.22946110E-16 -7.01445648E-01
 -3.15978534E-02 -4.51239533E-03 -2.55861404E-17  4.62249825E-16 -4.92185313E-03
 -4.92185313E-03  4.92185313E-03  4.92185313E-03 -1.79526916E-01  4.68048193E-01
 -1.19491292E-01  1.14329122E-15 -9.37616236E-17 -1.79526916E-01  4.68048193E-01
  1.19491292E-01 -8.45069737E-16 -1.11847586E-15  1.11964486E-01  1.11964486E-01
  1.11964486E-01  1.11964486E-01 -1.35636600E-01  4.10056211E-01  2.03328057E-01
 -2.77698342E-17  1.03233109E-16  1.35636600E-01 -4.10056211E-01  2.03328057E-01
  9.69314209E-17 -1.32405789E-15  2.23582875E-01  2.23582875E-01 -2.23582875E-01
 -2.23582875E-01 -4.91911263E-16  1.83573808E-15  4.24923028E-16 -2.34326978E-17
  3.96878182E-01  2.63820618E-16  2.50849569E-17  1.17256214E-15  3.25431889E-15
  3.96878182E-01  2.56595656E-01 -2.56595656E-01  2.56595656E-01 -2.56595656E-01
  1.48907497E-02 -1.68520161E-02  4.99968931E-01  4.78674278E-16 -1.25236140E-15
  1.48907497E-02 -1.68520161E-02 -4.99968931E-01  7.70838252E-16  2.91552323E-15
  2.16980715E-01  2.16980715E-01  2.16980715E-01  2.16980715E-01  3.25163879E-16
  2.04407823E-16  1.64362067E-15  1.72298933E-15  3.93365512E-01 -1.31608559E-16
 -7.31112605E-16 -3.33559141E-15  8.59446320E-16 -3.93365512E-01  3.50612066E-01
 -3.50612066E-01 -3.50612066E-01  3.50612066E-01 -7.13553326E-17  2.62278646E-18
 -5.72761702E-16  6.31961672E-01 -9.84925738E-16 -5.06173482E-17 -2.70234161E-16
  4.41204400E-16  6.31961672E-01  2.18610205E-17 -1.60035993E-15  1.27003240E-15
 -1.43321212E-16  3.55629069E-17 -4.39525980E-17  1.11320814E-16  7.14987068E-16
  8.17562528E-01 -7.31141222E-16 -1.67748608E-16  1.06586654E-15 -5.99724516E-16
 -8.17562528E-01 -9.92594949E-16  7.25085919E-16 -1.03206404E-15  4.38849296E-16
 -1.65404246E-15  4.24804774E-15 -2.88154888E-14 -2.26287860E-14  1.51281536E-15
  6.98227433E-01  5.76894695E-15 -3.95021032E-14  2.09897181E-14 -1.63370272E-15
  6.98227433E-01 -6.26294857E-01  6.26294857E-01 -6.26294857E-01  6.26294857E-01
 -1.23309030E-01  8.27164137E-01  5.21067848E-01 -1.39419741E-15  2.32927075E-14
 -1.23309030E-01  8.27164137E-01 -5.21067848E-01  1.50740645E-15  3.28582804E-14
 -6.31319849E-01 -6.31319849E-01 -6.31319849E-01 -6.31319849E-01 -1.67539830E-01
  1.05613135E+00  2.29945418E-01  6.59565561E-16 -2.22067160E-14  1.67539830E-01
 -1.05613135E+00  2.29945418E-01 -4.47737860E-16  1.61527646E-14 -6.46272373E-01
 -6.46272373E-01  6.46272373E-01  6.46272373E-01 -2.76200036E-15  1.52906333E-14
  1.93515490E-14 -4.13557233E-16  9.58361757E-01  1.53783818E-15 -7.03321995E-15
  1.36270544E-14  3.19252316E-16 -9.58361757E-01 -6.12353406E-01  6.12353406E-01
  6.12353406E-01 -6.12353406E-01  1.15842061E-01 -9.29983071E-01  1.17933461E+00
 -1.37488378E-16 -8.80440380E-15 -1.15842061E-01  9.29983071E-01  1.17933461E+00
  1.22535190E-16  1.05517143E-14 -1.17485472E-01 -1.17485472E-01  1.17485472E-01
  1.17485472E-01
Total SCF Density                          R   N=         105
  2.07075057E+00 -2.07374221E-01  7.77796369E-01 -8.30151717E-04  3.78420451E-02
  6.11227850E-01  2.81181483E-16  1.05361042E-15 -5.26063352E-16  7.98751110E-01
  5.47489883E-16  1.67455029E-15  4.46163403E-16  9.20586733E-17  6.24497433E-01
  2.90574334E-02 -7.35564072E-02  1.22145553E-01  6.19579017E-16  1.18896863E-15
  2.07075057E+00 -7.35564072E-02  1.01218286E-01 -2.95091357E-01  7.69030599E-16
 -6.52456273E-16 -2.07374221E-01  7.77796369E-01 -1.22145553E-01  2.95091357E-01
 -4.45777208E-01  3.39304676E-16 -4.23095382E-16  8.30151717E-04 -3.78420451E-02
  6.11227850E-01  5.53834055E-16 -7.25022080E-16  2.89573504E-16  7.98751110E-01
  2.01441878E-15  7.04424218E-16 -1.22564780E-15 -3.76554521E-16  7.98751110E-01
  9.61485373E-16 -9.02430703E-16  1.68455307E-15 -1.34649836E-15  5.55173061E-03
 -9.46259394E-17  5.09683034E-16 -1.70629059E-16  1.93461390E-15  6.24497433E-01
 -1.07962351E-01  2.80358366E-01  2.81156048E-01 -3.80334848E-16  4.79511824E-01
  2.71513820E-02 -8.57457406E-02 -9.92245245E-02  4.36324574E-16 -7.21629548E-02
  5.96845824E-01 -1.07962351E-01  2.80358366E-01  2.81156048E-01  8.55268544E-16
 -4.79511824E-01  2.71513820E-02 -8.57457406E-02 -9.92245245E-02 -4.81224914E-16
  7.21629548E-02 -1.58234781E-01  5.96845824E-01  2.71513820E-02 -8.57457406E-02
  9.92245245E-02 -9.32613800E-16 -7.21629548E-02 -1.07962351E-01  2.80358366E-01
 -2.81156048E-01  9.85388275E-16  4.79511824E-01 -9.49235654E-02  1.33426395E-01
  5.96845824E-01  2.71513820E-02 -8.57457406E-02  9.92245245E-02  1.73393632E-15
  7.21629548E-02 -1.07962351E-01  2.80358366E-01 -2.81156048E-01 -9.23363274E-16
 -4.79511824E-01  1.33426395E-01 -9.49235654E-02 -1.58234781E-01  5.96845824E-01
QEq coupling tensors                       R   N=          36
 -8.98852539E-02  9.76342539E-17  1.65226273E-01  4.18762247E-15  9.68238241E-17
 -7.53410190E-02 -8.98852539E-02  1.45493489E-16  1.65226273E-01 -4.74620343E-15
  3.71285029E-15 -7.53410190E-02  2.23757968E-02 -1.15690757E-16  1.68939228E-01
 -2.21564461E-01 -1.78246613E-16 -1.91315025E-01  2.23757968E-02 -8.46019736E-17
  1.68939228E-01  2.21564461E-01  1.75078409E-16 -1.91315025E-01  2.23757968E-02
  1.06414567E-16  1.68939228E-01  2.21564461E-01 -1.78396519E-17 -1.91315025E-01
  2.23757968E-02 -3.09813691E-16  1.68939228E-01 -2.21564461E-01 -4.06761397E-16
 -1.91315025E-01
Mulliken Charges                           R   N=           6
 -1.27122289E-01 -1.27122289E-01  6.35611446E-02  6.35611446E-02  6.35611446E-02
  6.35611446E-02
ONIOM Charges                              I   N=          16
           0           0           0           0           0           0
           0           0           0           0           0           0
           0           0           0           0
ONIOM Multiplicities                       I   N=          16
           1           0           0           0           0           0
           0           0           0           0           0           0
           0           0           0           0
Atom Layers                                I   N=           6
           1           1           1           1           1           1
Atom Modifiers                             I   N=           6
           0           0           0           0           0           0
Force Field                                I                0
Int Atom Modified Types                    I   N=           6
           0           0           0           0           0           0
Link Atoms                                 I   N=           6
           0           0           0           0           0           0
Atom Modified MM Charges                   R   N=           6
  0.00000000E+00  0.00000000E+00  0.00000000E+00  0.00000000E+00  0.00000000E+00
  0.00000000E+00
Link Distances                             R   N=          24
  0.00000000E+00  0.00000000E+00  0.00000000E+00  0.00000000E+00  0.00000000E+00
  0.00000000E+00  0.00000000E+00  0.00000000E+00  0.00000000E+00  0.00000000E+00
  0.00000000E+00  0.00000000E+00  0.00000000E+00  0.00000000E+00  0.00000000E+00
  0.00000000E+00  0.00000000E+00  0.00000000E+00  0.00000000E+00  0.00000000E+00
  0.00000000E+00  0.00000000E+00  0.00000000E+00  0.00000000E+00
Cartesian Gradient                         R   N=          18
 -1.21664407E-06  4.21176293E-16  3.19657307E-15  1.21664407E-06 -2.95759295E-16
  2.62758059E-15  1.70941276E-07  6.44104293E-17  2.32752949E-07  1.70941281E-07
 -2.04832280E-16 -2.32752951E-07 -1.70941277E-07 -1.85977632E-16  2.32752951E-07
 -1.70941280E-07  2.00982484E-16 -2.32752951E-07
Cartesian Force Constants                  R   N=         171
  1.27250427E+00 -4.17508854E-17  1.62835846E-01 -8.37627458E-14 -6.59787209E-17
  8.94968583E-01 -8.67952315E-01  2.59181955E-16  1.59506843E-16  1.27250427E+00
  2.84508124E-16 -7.30983210E-02 -8.24567377E-17 -2.83781968E-16  1.62835846E-01
  4.21196840E-16 -1.11184432E-16 -1.73114627E-01  8.31787604E-14  5.45114978E-16
  8.94968583E-01 -1.89438287E-01 -7.43102263E-17 -1.71346941E-01 -1.28376933E-02
  6.51577122E-17 -3.90690494E-02  1.90336745E-01 -1.03097622E-17 -5.37694345E-02
 -3.83736704E-17 -5.61792552E-17  8.90067217E-03  2.80518175E-17  1.62991503E-17
  3.50947401E-02 -1.75966831E-01 -2.36199303E-17 -3.71593818E-01  1.00814920E-02
 -2.05757535E-17  1.06668400E-02  1.86955407E-01 -1.77830205E-18  3.72340737E-01
 -1.89438287E-01 -1.34854071E-16  1.71346941E-01 -1.28376933E-02 -2.03723209E-17
  3.90690494E-02  1.46605441E-02  3.65584918E-17 -2.17811731E-02  1.90336745E-01
 -1.32064666E-16 -5.37694345E-02  1.37957589E-16  3.28874445E-17  8.90067217E-03
 -4.12289128E-17 -1.65032467E-17  3.98638035E-03  4.08495349E-17  1.06088037E-16
  3.50947401E-02  1.75966831E-01  1.63493177E-16 -3.71593818E-01 -1.00814920E-02
 -3.78938303E-17  1.06668400E-02  2.17811731E-02  1.56425006E-17 -1.32071591E-02
 -1.86955407E-01 -1.37359802E-16  3.72340737E-01 -1.28376933E-02  1.57130072E-18
  3.90690494E-02 -1.89438287E-01  7.58100485E-17  1.71346941E-01  2.59892981E-03
  5.69237026E-18 -4.84152698E-04 -5.32023866E-03  1.58211701E-17 -1.19525725E-03
  1.90336745E-01 -1.67584354E-16  8.90067217E-03  1.07930721E-17  1.50429511E-16
 -5.37694345E-02 -1.58341013E-16  1.88705983E-17 -1.26602917E-02  1.03183948E-17
  3.41723039E-17  1.84479336E-02 -2.61290548E-17 -7.66337021E-17  3.50947401E-02
 -1.00814920E-02 -1.55088099E-17  1.06668400E-02  1.75966831E-01 -1.13862938E-16
 -3.71593818E-01  4.84152698E-04 -2.06552878E-18  1.99453695E-03 -1.19525725E-03
 -8.51389009E-19 -2.01136743E-04 -1.86955407E-01  1.58705658E-16  3.72340737E-01
 -1.28376933E-02 -9.83807271E-18 -3.90690494E-02 -1.89438287E-01 -1.21321596E-16
 -1.71346941E-01 -5.32023866E-03  7.93900512E-18  1.19525725E-03  2.59892981E-03
 -6.22873943E-18  4.84152698E-04  1.46605441E-02  4.07456432E-17  2.17811731E-02
  1.90336745E-01  6.72015440E-17  8.90067217E-03  3.80584676E-17 -1.02537687E-16
 -5.37694345E-02 -2.62412438E-16 -9.51398776E-18  1.84479336E-02 -5.19394381E-18
 -2.15924410E-17 -1.26602917E-02  2.22470103E-17 -2.22611874E-17  3.98638035E-03
 -2.64169926E-17  8.87037597E-17  3.50947401E-02  1.00814920E-02  5.27987160E-17
  1.06668400E-02 -1.75966831E-01 -2.90325719E-16 -3.71593818E-01  1.19525725E-03
 -1.47681692E-18 -2.01136743E-04 -4.84152698E-04  6.32979937E-19  1.99453695E-03
 -2.17811731E-02  4.65294311E-18 -1.32071591E-02  1.86955407E-01  2.33717897E-16
  3.72340737E-01
Dipole Moment                              R   N=           3
  1.46549439E-14 -4.20860637E-16  5.68434189E-14
Dipole Derivatives                         R   N=          54
 -1.27193763E-01  9.86727939E-17  4.21884749E-15  1.07429560E-16 -1.64553075E-01
 -1.21881684E-15  1.23062390E-15  7.91421803E-16 -6.59845581E-03 -1.27193763E-01
  3.58681877E-16 -3.71924713E-15 -4.52276576E-17 -1.64553075E-01  4.85134953E-16
 -2.53296233E-15 -7.82202947E-16 -6.59845581E-03  6.35968816E-02 -9.63731896E-17
 -7.92992744E-03  8.73092570E-17  8.22765377E-02 -9.96902563E-16  6.78914269E-02
 -9.73375798E-17  3.29922791E-03  6.35968816E-02 -1.66107799E-16  7.92992744E-03
  1.27396634E-17  8.22765377E-02  1.76431152E-15 -6.78914269E-02 -4.32094903E-17
  3.29922791E-03  6.35968816E-02 -5.45004223E-17  7.92992744E-03 -9.18447596E-16
  8.22765377E-02  1.26949785E-15 -6.78914269E-02  1.70629771E-16  3.29922791E-03
  6.35968816E-02 -1.40373260E-16 -7.92992744E-03  7.56196774E-16  8.22765377E-02
 -1.30322493E-15  6.78914269E-02 -3.93015565E-17  3.29922791E-03
Polarizability                             R   N=           6
  1.90053384E+01  1.25299392E-15  2.47029865E+00 -3.11479922E-14  1.01205373E-15
  1.07463743E+01
Polarizability Derivatives                 R   N=         108
  6.04213133E+00 -2.35833724E-15  7.47013383E-01 -2.26570133E-14  1.63089554E-15
 -1.07642837E+00  4.55762075E-15  5.34131512E+00 -2.01217144E-15 -2.14946755E-14
 -9.98978800E-15 -8.01623881E-15  2.84716637E-14 -1.53055289E-15  1.49268637E-15
 -1.50878447E+00  6.29836808E-16 -8.63275651E-15 -6.04213133E+00  2.99459194E-15
 -7.47013383E-01  5.19185254E-14  3.91256305E-15  1.07642837E+00 -2.66484891E-15
 -5.34131512E+00  1.26022307E-15 -2.47593832E-14  1.82319437E-14 -1.72064388E-14
  2.27590013E-14  4.69021749E-15 -8.19105690E-16  1.50878447E+00  8.39562942E-15
  6.54505611E-14  3.78422524E+00  1.48178185E-15 -4.00640203E-02  1.90961292E+00
  1.73905303E-15  5.50409957E-01  2.70164787E-15  3.60811265E-01  2.14371998E-15
  5.23009641E-15  1.19553970E+00  7.48755488E-15  1.01508316E+00  1.64384315E-15
  2.01270979E-01  2.71237308E+00 -1.78677253E-15  3.91672268E+00  3.78422524E+00
  2.63746292E-16 -4.00640203E-02 -1.90961292E+00 -4.15459164E-15  5.50409957E-01
 -3.76727018E-15  3.60811265E-01 -1.47133954E-16  1.37680866E-14 -1.19553970E+00
 -8.50229369E-17 -1.01508316E+00 -7.66240961E-16 -2.01270979E-01  2.71237308E+00
  3.72503930E-15 -3.91672268E+00 -3.78422524E+00 -4.54278429E-16  4.00640203E-02
  1.90961292E+00  1.05589754E-15 -5.50409957E-01 -7.00812401E-15 -3.60811265E-01
 -2.32564598E-15 -1.25379692E-14  1.19553970E+00  4.54719390E-15  1.01508316E+00
  4.71934509E-16  2.01270979E-01 -2.71237308E+00 -2.78576128E-16  3.91672268E+00
 -3.78422524E+00 -2.15166317E-15  4.00640203E-02 -1.90961292E+00 -4.18381752E-15
 -5.50409957E-01  6.18097448E-15 -3.60811265E-01  6.32690795E-16  3.97938450E-14
 -1.19553970E+00  1.32729518E-14 -1.01508316E+00 -4.50920130E-15 -2.01270979E-01
 -2.71237308E+00 -1.09093156E-14 -3.91672268E+00
HyperPolarizability                        R   N=          10
  1.69310412E-12 -6.47297014E-16 -1.18975230E-14  2.38173092E-17  3.26673270E-13
  5.57193327E-14  4.17138884E-14 -9.10806161E-16  2.92293023E-14  5.19584376E-14
