                                                                        
Freq      RHF                                                         STO-3G              
Number of atoms                            I                6
Info1-9                                    I   N=           9
          12          12           0           0           0         100
           6           1           2
Charge                                     I                0
Multiplicity                               I                1
Number of electrons                        I               16
Number of alpha electrons                  I                8
Number of beta electrons                   I                8
Number of basis functions                  I               14
Number of independent functions            I               14
Number of point charges in /Mol/           I                0
Number of translation vectors              I                0
Atomic numbers                             I   N=           6
           6           6           1           1           1           1
Nuclear charges                            R   N=           6
  6.00000000E+00  6.00000000E+00  1.00000000E+00  1.00000000E+00  1.00000000E+00
  1.00000000E+00
Current cartesian coordinates              R   N=          18
  0.00000000E+00  1.23401951E+00  4.51070069E+00  0.00000000E+00 -1.23401951E+00
  4.51070069E+00  0.00000000E+00  2.32286648E+00  2.78008572E+00  0.00000000E+00
  2.32286648E+00  6.24131566E+00  0.00000000E+00 -2.32286648E+00  2.78008572E+00
  0.00000000E+00 -2.32286648E+00  6.24131566E+00
Force Field                                I                0
Int Atom Types                             I   N=           6
           0           0           0           0           0           0
MM charges                                 R   N=           6
  0.00000000E+00  0.00000000E+00  0.00000000E+00  0.00000000E+00  0.00000000E+00
  0.00000000E+00
Integer atomic weights                     I   N=           6
          12          12           1           1           1           1
Real atomic weights                        R   N=           6
  1.20000000E+01  1.20000000E+01  1.00782504E+00  1.00782504E+00  1.00782504E+00
  1.00782504E+00
Atom fragment info                         I   N=           6
           0           0           0           0           0           0
Atom residue num                           I   N=           6
           0           0           0           0           0           0
Nuclear spins                              I   N=           6
           0           0           1           1           1           1
Nuclear ZEff                               R   N=           6
 -3.60000000E+00 -3.60000000E+00 -1.00000000E+00 -1.00000000E+00 -1.00000000E+00
 -1.00000000E+00
Nuclear QMom                               R   N=           6
  0.00000000E+00  0.00000000E+00  0.00000000E+00  0.00000000E+00  0.00000000E+00
  0.00000000E+00
Nuclear GFac                               R   N=           6
  0.00000000E+00  0.00000000E+00  2.79284600E+00  2.79284600E+00  2.79284600E+00
  2.79284600E+00
MicOpt                                     I   N=           6
          -1          -1          -1          -1          -1          -1
Number of contracted shells                I                8
Number of primitive shells                 I               24
Pure/Cartesian d shells                    I                0
Pure/Cartesian f shells                    I                0
Highest angular momentum                   I                1
Largest degree of contraction              I                3
Shell types                                I   N=           8
           0          -1           0          -1           0           0
           0           0
Number of primitives per shell             I   N=           8
           3           3           3           3           3           3
           3           3
Shell to atom map                          I   N=           8
           1           1           2           2           3           4
           5           6
Primitive exponents                        R   N=          24
  7.16168373E+01  1.30450963E+01  3.53051216E+00  2.94124936E+00  6.83483096E-01
  2.22289916E-01  7.16168373E+01  1.30450963E+01  3.53051216E+00  2.94124936E+00
  6.83483096E-01  2.22289916E-01  3.42525091E+00  6.23913730E-01  1.68855404E-01
  3.42525091E+00  6.23913730E-01  1.68855404E-01  3.42525091E+00  6.23913730E-01
  1.68855404E-01  3.42525091E+00  6.23913730E-01  1.68855404E-01
Contraction coefficients                   R   N=          24
  1.54328967E-01  5.35328142E-01  4.44634542E-01 -9.99672292E-02  3.99512826E-01
  7.00115469E-01  1.54328967E-01  5.35328142E-01  4.44634542E-01 -9.99672292E-02
  3.99512826E-01  7.00115469E-01  1.54328967E-01  5.35328142E-01  4.44634542E-01
  1.54328967E-01  5.35328142E-01  4.44634542E-01  1.54328967E-01  5.35328142E-01
  4.44634542E-01  1.54328967E-01  5.35328142E-01  4.44634542E-01
P(S=P) Contraction coefficients            R   N=          24
  0.00000000E+00  0.00000000E+00  0.00000000E+00  1.55916275E-01  6.07683719E-01
  3.91957393E-01  0.00000000E+00  0.00000000E+00  0.00000000E+00  1.55916275E-01
  6.07683719E-01  3.91957393E-01  0.00000000E+00  0.00000000E+00  0.00000000E+00
  0.00000000E+00  0.00000000E+00  0.00000000E+00  0.00000000E+00  0.00000000E+00
  0.00000000E+00  0.00000000E+00  0.00000000E+00  0.00000000E+00
Coordinates of each shell                  R   N=          24
  0.00000000E+00  1.23401951E+00  4.51070069E+00  0.00000000E+00  1.23401951E+00
  4.51070069E+00  0.00000000E+00 -1.23401951E+00  4.51070069E+00  0.00000000E+00
 -1.23401951E+00  4.51070069E+00  0.00000000E+00  2.32286648E+00  2.78008572E+00
  0.00000000E+00  2.32286648E+00  6.24131566E+00  0.00000000E+00 -2.32286648E+00
  2.78008572E+00  0.00000000E+00 -2.32286648E+00  6.24131566E+00
Constraint Structure                       R   N=          18
  0.00000000E+00  1.23401951E+00  4.51070069E+00  0.00000000E+00 -1.23401951E+00
  4.51070069E+00  0.00000000E+00  2.32286648E+00  2.78008572E+00  0.00000000E+00
  2.32286648E+00  6.24131566E+00  0.00000000E+00 -2.32286648E+00  2.78008572E+00
  0.00000000E+00 -2.32286648E+00  6.24131566E+00
Num ILSW                                   I              100
ILSW                                       I   N=         100
           0           0           0           0           2           0
           0           0           0           0           0          -1
           0           0           0           0           0           0
           0           0           1           0           1           0
           1           1           0           0           0           0
           0           0      100000           0          -1           0
           0           0           0           0           0           0
           0           0           0           1           0           0
           0           0           1           0           0           0
           0           0           4          40           0           0
           0           0           0           0           0           0
           0           0           0           0           0           0
           0           0           0           0           0           0
           0           0           0           0           0           0
           0           0           0           0           0           0
           0           0           0           0           0           0
           0           0           0           0
Num RLSW                                   I               40
RLSW                                       R   N=          40
  1.00000000E+00  1.00000000E+00  1.00000000E+00  1.00000000E+00  1.00000000E+00
  0.00000000E+00  0.00000000E+00  1.00000000E+00  0.00000000E+00  0.00000000E+00
  0.00000000E+00  0.00000000E+00  1.00000000E+00  0.00000000E+00  0.00000000E+00
  0.00000000E+00  0.00000000E+00  1.00000000E+00  0.00000000E+00  0.00000000E+00
  0.00000000E+00  0.00000000E+00  1.00000000E+00  0.00000000E+00  0.00000000E+00
  0.00000000E+00  0.00000000E+00  1.00000000E+00  0.00000000E+00  0.00000000E+00
  0.00000000E+00  0.00000000E+00  1.00000000E+00  0.00000000E+00  0.00000000E+00
  0.00000000E+00  0.00000000E+00  0.00000000E+00  1.00000000E+00  1.00000000E+00
MxBond                                     I                3
NBond                                      I   N=           6
           3           3           1           1           1           1
IBond                                      I   N=          18
           2           3           4           1           5           6
           1           0           0           1           0           0
           2           0           0           2           0           0
RBond                                      R   N=          18
  2.00000000E+00  1.00000000E+00  1.00000000E+00  2.00000000E+00  1.00000000E+00
  1.00000000E+00  1.00000000E+00  0.00000000E+00  0.00000000E+00  1.00000000E+00
  0.00000000E+00  0.00000000E+00  1.00000000E+00  0.00000000E+00  0.00000000E+00
  1.00000000E+00  0.00000000E+00  0.00000000E+00
Virial Ratio                               R      2.005836032663812E+00
SCF Energy                                 R     -7.707395477531355E+01
Total Energy                               R     -7.707395477531355E+01
RMS Force                                  R      4.277866155939587E-07
RMS Density                                R      3.117003699883182E-09
External E-field                           R   N=          35
  0.00000000E+00  0.00000000E+00  0.00000000E+00  0.00000000E+00  0.00000000E+00
  0.00000000E+00  0.00000000E+00  0.00000000E+00  0.00000000E+00  0.00000000E+00
  0.00000000E+00  0.00000000E+00  0.00000000E+00  0.00000000E+00  0.00000000E+00
  0.00000000E+00  0.00000000E+00  0.00000000E+00  0.00000000E+00  0.00000000E+00
  0.00000000E+00  0.00000000E+00  0.00000000E+00  0.00000000E+00  0.00000000E+00
  0.00000000E+00  0.00000000E+00  0.00000000E+00  0.00000000E+00  0.00000000E+00
  0.00000000E+00  0.00000000E+00  0.00000000E+00  0.00000000E+00  0.00000000E+00
IOpCl                                      I                0
IROHF                                      I                0
Alpha Orbital Energies                     R   N=          14
 -1.10217115E+01 -1.10206640E+01 -9.87646405E-01 -7.45718874E-01 -6.05619364E-01
 -5.40226630E-01 -4.58057728E-01 -3.35492533E-01  3.28314285E-01  6.18811135E-01
  6.99887159E-01  7.03621391E-01  9.47733663E-01  1.02787794E+00
Alpha MO coefficients                      R   N=         196
  7.01783694E-01  2.00140457E-02 -1.53143181E-16  2.04056461E-03 -4.89015441E-16
  7.01783694E-01  2.00140457E-02  3.11315990E-16 -2.04056461E-03 -2.21825631E-16
 -4.74948201E-03 -4.74948201E-03 -4.74948201E-03 -4.74948201E-03  7.01445648E-01
  3.15978534E-02 -7.12633561E-17 -4.51239533E-03 -2.14632554E-15 -7.01445648E-01
 -3.15978534E-02 -2.17429363E-17 -4.51239533E-03 -2.38453867E-15 -4.92185313E-03
 -4.92185313E-03  4.92185313E-03  4.92185313E-03 -1.79526916E-01  4.68048193E-01
 -7.10350766E-16 -1.19491292E-01 -1.16699354E-15 -1.79526916E-01  4.68048193E-01
  6.06837725E-16  1.19491292E-01  5.48140243E-18  1.11964486E-01  1.11964486E-01
  1.11964486E-01  1.11964486E-01 -1.35636600E-01  4.10056211E-01 -3.05148876E-16
  2.03328057E-01  4.65226344E-15  1.35636600E-01 -4.10056211E-01 -3.64696781E-17
  2.03328057E-01  4.38815206E-15  2.23582875E-01  2.23582875E-01 -2.23582875E-01
 -2.23582875E-01  1.37587562E-15 -2.76604960E-15 -1.20738823E-15 -6.24928706E-16
  3.96878182E-01 -1.90556656E-15  3.68995106E-15 -9.88808870E-16 -3.75898829E-15
  3.96878182E-01 -2.56595656E-01  2.56595656E-01 -2.56595656E-01  2.56595656E-01
  1.48907497E-02 -1.68520161E-02 -1.87011446E-15  4.99968931E-01 -1.97243850E-15
  1.48907497E-02 -1.68520161E-02 -2.72417300E-15 -4.99968931E-01 -3.90694595E-15
  2.16980715E-01  2.16980715E-01  2.16980715E-01  2.16980715E-01 -2.92156573E-16
  5.58941930E-16 -7.45391632E-16 -1.34902144E-15  3.93365512E-01 -7.09050901E-17
  8.65201305E-16 -4.25355053E-16  2.64979318E-15 -3.93365512E-01 -3.50612066E-01
  3.50612066E-01  3.50612066E-01 -3.50612066E-01 -4.79521685E-17  2.96309490E-17
  6.31961672E-01  1.71809186E-15  7.99081263E-16 -3.36543463E-18 -1.88892765E-16
  6.31961672E-01 -1.65934424E-15  2.62622350E-16 -1.99928069E-16  1.61866798E-15
  7.38550333E-16  6.26970885E-16 -2.77006062E-17 -2.33938066E-17  8.17562528E-01
 -3.70498111E-16 -6.10362139E-16  4.21354203E-17 -4.55375811E-16 -8.17562528E-01
  1.68112357E-16  1.92407049E-16 -2.53389155E-16  8.58435196E-16  5.79180558E-16
  2.93758810E-16  8.34517667E-16 -5.15141694E-15  6.38271069E-16  5.46911704E-15
  6.98227433E-01  1.43648642E-16  1.19403948E-15 -5.86694795E-16  6.55697108E-15
  6.98227433E-01  6.26294857E-01 -6.26294857E-01  6.26294857E-01 -6.26294857E-01
 -1.23309030E-01  8.27164137E-01  5.81804061E-17  5.21067848E-01  2.35031835E-15
 -1.23309030E-01  8.27164137E-01 -4.33533878E-16 -5.21067848E-01  1.34390430E-15
 -6.31319849E-01 -6.31319849E-01 -6.31319849E-01 -6.31319849E-01 -1.67539830E-01
  1.05613135E+00 -1.47778178E-16  2.29945418E-01 -4.88669563E-16  1.67539830E-01
 -1.05613135E+00  1.11732261E-16  2.29945418E-01 -1.10524109E-15 -6.46272373E-01
 -6.46272373E-01  6.46272373E-01  6.46272373E-01 -6.56344396E-16  7.74919794E-15
  1.54137720E-15 -1.21654552E-14  9.58361757E-01  1.13274844E-15 -9.51715973E-15
 -8.92621770E-16 -1.12076838E-14 -9.58361757E-01  6.12353406E-01 -6.12353406E-01
 -6.12353406E-01  6.12353406E-01  1.15842061E-01 -9.29983071E-01  1.70292282E-16
  1.17933461E+00  6.45795040E-15 -1.15842061E-01  9.29983071E-01 -2.34678615E-16
  1.17933461E+00 -1.24908537E-14 -1.17485472E-01 -1.17485472E-01  1.17485472E-01
  1.17485472E-01
Total SCF Density                          R   N=         105
  2.07075057E+00 -2.07374221E-01  7.77796369E-01 -9.33913177E-17 -8.25365091E-16
  7.98751110E-01 -8.30151717E-04  3.78420451E-02  3.47227098E-16  6.11227850E-01
 -3.73692922E-15  8.78394310E-16 -5.34817349E-16 -1.34153718E-15  6.24497433E-01
  2.90574334E-02 -7.35564072E-02 -2.64504377E-18  1.22145553E-01  2.37866220E-15
  2.07075057E+00 -7.35564072E-02  1.01218286E-01 -5.92042470E-16 -2.95091357E-01
 -1.11565130E-15 -2.07374221E-01  7.77796369E-01  5.67180085E-17  6.78503553E-16
  7.98751110E-01 -7.10854837E-16 -1.09535887E-16  1.54291682E-16  4.64872922E-16
  7.98751110E-01 -1.22145553E-01  2.95091357E-01 -5.19869653E-16 -4.45777208E-01
  2.70761567E-15  8.30151717E-04 -3.78420451E-02  7.55838536E-16  6.11227850E-01
 -3.64334797E-15  9.40710679E-16 -4.00148496E-17 -1.53765373E-15  5.55173061E-03
  2.64919420E-15 -1.07191228E-15 -1.18298797E-16  6.46511883E-16  6.24497433E-01
 -1.07962351E-01  2.80358366E-01 -2.15307596E-16  2.81156048E-01 -4.79511824E-01
  2.71513820E-02 -8.57457406E-02 -5.12325007E-16 -9.92245245E-02  7.21629548E-02
  5.96845824E-01 -1.07962351E-01  2.80358366E-01 -2.01357097E-16  2.81156048E-01
  4.79511824E-01  2.71513820E-02 -8.57457406E-02  1.74806291E-16 -9.92245245E-02
 -7.21629548E-02 -1.58234781E-01  5.96845824E-01  2.71513820E-02 -8.57457406E-02
  1.96985226E-16  9.92245245E-02  7.21629548E-02 -1.07962351E-01  2.80358366E-01
  1.09489218E-16 -2.81156048E-01 -4.79511824E-01 -9.49235654E-02  1.33426395E-01
  5.96845824E-01  2.71513820E-02 -8.57457406E-02 -1.37911741E-16  9.92245245E-02
 -7.21629548E-02 -1.07962351E-01  2.80358366E-01 -4.49896437E-16 -2.81156048E-01
  4.79511824E-01  1.33426395E-01 -9.49235654E-02 -1.58234781E-01  5.96845824E-01
QEq coupling tensors                       R   N=          36
  1.65226273E-01  0.00000000E+00 -8.98852539E-02  0.00000000E+00 -6.60235755E-15
 -7.53410190E-02  1.65226273E-01  0.00000000E+00 -8.98852539E-02  0.00000000E+00
  4.60742555E-15 -7.53410190E-02  1.68939228E-01  0.00000000E+00  2.23757968E-02
  0.00000000E+00  2.21564461E-01 -1.91315025E-01  1.68939228E-01  0.00000000E+00
  2.23757968E-02  0.00000000E+00 -2.21564461E-01 -1.91315025E-01  1.68939228E-01
  0.00000000E+00  2.23757968E-02  0.00000000E+00 -2.21564461E-01 -1.91315025E-01
  1.68939228E-01  0.00000000E+00  2.23757968E-02  0.00000000E+00  2.21564461E-01
 -1.91315025E-01
Mulliken Charges                           R   N=           6
 -1.27122289E-01 -1.27122289E-01  6.35611446E-02  6.35611446E-02  6.35611446E-02
  6.35611446E-02
ONIOM Charges                              I   N=          16
           0           0           0           0           0           0
           0           0           0           0           0           0
           0           0           0           0
ONIOM Multiplicities                       I   N=          16
           1           0           0           0           0           0
           0           0           0           0           0           0
           0           0           0           0
Atom Layers                                I   N=           6
           1           1           1           1           1           1
Atom Modifiers                             I   N=           6
           0           0           0           0           0           0
Force Field                                I                0
Int Atom Modified Types                    I   N=           6
           0           0           0           0           0           0
Link Atoms                                 I   N=           6
           0           0           0           0           0           0
Atom Modified MM Charges                   R   N=           6
  0.00000000E+00  0.00000000E+00  0.00000000E+00  0.00000000E+00  0.00000000E+00
  0.00000000E+00
Link Distances                             R   N=          24
  0.00000000E+00  0.00000000E+00  0.00000000E+00  0.00000000E+00  0.00000000E+00
  0.00000000E+00  0.00000000E+00  0.00000000E+00  0.00000000E+00  0.00000000E+00
  0.00000000E+00  0.00000000E+00  0.00000000E+00  0.00000000E+00  0.00000000E+00
  0.00000000E+00  0.00000000E+00  0.00000000E+00  0.00000000E+00  0.00000000E+00
  0.00000000E+00  0.00000000E+00  0.00000000E+00  0.00000000E+00
Cartesian Gradient                         R   N=          18
 -5.09762676E-16 -1.21664406E-06 -5.35392568E-15  3.72198433E-16  1.21664407E-06
  4.11101435E-16  6.17361734E-17  1.70941278E-07 -2.32752947E-07  3.94027237E-17
  1.70941277E-07  2.32752949E-07 -3.29638657E-18 -1.70941279E-07 -2.32752953E-07
  3.97217321E-17 -1.70941281E-07  2.32752952E-07
Cartesian Force Constants                  R   N=         171
  1.62835846E-01  3.54826211E-17  1.27250427E+00 -2.09541510E-16  8.63454812E-14
  8.94968583E-01 -7.30983210E-02 -2.93363011E-16  1.07067080E-16  1.62835846E-01
 -3.78430831E-16 -8.67952315E-01 -1.34550907E-15  5.46079785E-16  1.27250427E+00
  1.56227728E-16 -1.54720365E-15 -1.73114627E-01 -1.79107502E-16 -8.34935831E-14
  8.94968583E-01 -5.37694345E-02  1.42024897E-16 -6.04002551E-17  8.90067217E-03
 -1.83749288E-17  4.83641405E-17  3.50947401E-02  1.44651893E-16 -1.89438287E-01
  1.71346941E-01 -1.75969825E-18 -1.28376933E-02  3.90690494E-02 -1.23835421E-16
  1.90336745E-01 -6.58742235E-17  1.75966831E-01 -3.71593818E-01  3.33366766E-17
 -1.00814920E-02  1.06668400E-02  3.11711441E-17 -1.86955407E-01  3.72340737E-01
 -5.37694345E-02  6.54188643E-17  1.58226862E-16  8.90067217E-03  2.70246123E-17
 -4.98976865E-17  3.98638035E-03 -1.43526738E-17 -6.01401356E-18  3.50947401E-02
  1.61881973E-16 -1.89438287E-01 -1.71346941E-01 -8.37534316E-17 -1.28376933E-02
 -3.90690494E-02  1.79081425E-18  1.46605441E-02  2.17811731E-02 -8.14869676E-17
  1.90336745E-01  1.30137464E-16 -1.75966831E-01 -3.71593818E-01  3.07747281E-18
  1.00814920E-02  1.06668400E-02 -3.13693755E-17 -2.17811731E-02 -1.32071591E-02
 -9.06488739E-17  1.86955407E-01  3.72340737E-01  8.90067217E-03  2.34102202E-17
  1.15853459E-17 -5.37694345E-02 -9.10833805E-17 -3.81937292E-17 -1.26602917E-02
 -7.56893879E-18 -4.77816140E-19  1.84479336E-02  6.46047439E-18 -8.37460864E-18
  3.50947401E-02  2.11636771E-17 -1.28376933E-02 -3.90690494E-02 -7.98683373E-17
 -1.89438287E-01 -1.71346941E-01  2.19889291E-17  2.59892981E-03  4.84152698E-04
 -2.09884927E-17 -5.32023866E-03  1.19525725E-03  7.88983286E-17  1.90336745E-01
 -3.00851753E-17  1.00814920E-02  1.06668400E-02 -1.49715060E-17 -1.75966831E-01
 -3.71593818E-01  3.98737521E-18 -4.84152698E-04  1.99453695E-03  2.55085797E-18
  1.19525725E-03 -2.01136743E-04  3.48952212E-17  1.86955407E-01  3.72340737E-01
  8.90067217E-03  2.70264085E-17 -6.93752324E-18 -5.37694345E-02 -8.52152570E-17
  6.26070493E-17  1.84479336E-02  2.86483860E-18  7.85823259E-18 -1.26602917E-02
 -4.89286266E-18 -2.82207900E-18  3.98638035E-03 -2.11941047E-17  3.62322692E-18
  3.50947401E-02  1.52506663E-17 -1.28376933E-02  3.90690494E-02 -8.73353063E-17
 -1.89438287E-01  1.71346941E-01 -2.35942907E-17 -5.32023866E-03 -1.19525725E-03
  2.43846574E-17  2.59892981E-03 -4.84152698E-04 -1.01167039E-17  1.46605441E-02
 -2.17811731E-02  8.14109772E-17  1.90336745E-01  1.91357169E-17 -1.00814920E-02
  1.06668400E-02  5.05977778E-17  1.75966831E-01 -3.71593818E-01  8.24697089E-18
 -1.19525725E-03 -2.01136743E-04 -1.42171460E-17  4.84152698E-04  1.99453695E-03
  5.65586976E-19  2.17811731E-02 -1.32071591E-02 -6.43289065E-17 -1.86955407E-01
  3.72340737E-01
Dipole Moment                              R   N=           3
  1.00795907E-15  1.37667655E-14 -1.42108547E-13
Dipole Derivatives                         R   N=          54
 -1.64553075E-01 -3.02657659E-16 -4.29564751E-16 -4.25631045E-16 -1.27193763E-01
 -1.16573418E-14 -3.15591173E-17 -3.41342877E-16 -6.59845581E-03 -1.64553075E-01
  1.79220296E-15  2.53262097E-15 -2.71499303E-16 -1.27193763E-01  5.82867088E-15
 -1.11138268E-16  2.12764876E-15 -6.59845581E-03  8.22765377E-02 -3.39919379E-16
 -6.09524961E-16  2.54589237E-16  6.35968816E-02  7.92992744E-03 -1.48441813E-16
 -6.78914269E-02  3.29922791E-03  8.22765377E-02 -1.52800075E-15 -1.57694537E-15
  3.23400233E-16  6.35968816E-02 -7.92992744E-03  2.64920835E-16  6.78914269E-02
  3.29922791E-03  8.22765377E-02  2.69742607E-16  7.58354096E-16  6.12235530E-17
  6.35968816E-02 -7.92992744E-03  5.40445348E-17  6.78914269E-02  3.29922791E-03
  8.22765377E-02  1.08632224E-16 -6.74939978E-16  5.79173258E-17  6.35968816E-02
  7.92992744E-03 -2.78261711E-17 -6.78914269E-02  3.29922791E-03
Polarizability                             R   N=           6
  2.47029865E+00  2.85116235E-15  1.90053384E+01 -4.75722155E-15  2.75852156E-14
  1.07463743E+01
Polarizability Derivatives                 R   N=         108
 -4.02144838E-16  5.34131512E+00 -9.95315267E-15  3.76524780E-14 -1.41559901E-15
 -3.31833084E-16  7.47013383E-01  2.26912163E-15  6.04213133E+00  3.23024165E-15
  8.15092487E-14 -1.07642837E+00 -2.80087512E-15  5.06792435E-15 -1.68328168E-14
  4.29284660E-15 -1.50878447E+00  3.68002680E-14 -1.08557851E-15 -5.34131512E+00
  1.06543535E-14 -2.92725913E-14  7.85059381E-15 -1.24312780E-14 -7.47013383E-01
  3.38972575E-15 -6.04213133E+00  3.56587578E-15 -9.09853790E-14  1.07642837E+00
  4.36556766E-15 -1.99623443E-15 -2.12114109E-14  2.52545373E-15  1.50878447E+00
  6.96030012E-15  6.04481433E-16  3.60811265E-01  2.22975478E-17 -1.19553970E+00
 -5.48625116E-16 -5.97026365E-15 -4.00640203E-02 -4.14928551E-16  3.78422524E+00
 -1.23847634E-15 -1.90961292E+00  5.50409957E-01 -2.01270979E-01 -1.89955215E-15
 -1.01508316E+00 -1.89077002E-15  2.71237308E+00 -3.91672268E+00 -3.80794985E-16
  3.60811265E-01  2.19675632E-15  1.19553970E+00  8.82710635E-15  6.93527366E-15
 -4.00640203E-02 -2.27534921E-15  3.78422524E+00 -1.56217556E-15  1.90961292E+00
  5.50409957E-01  2.01270979E-01 -1.85874651E-15  1.01508316E+00 -1.70260227E-15
  2.71237308E+00  3.91672268E+00 -6.98115981E-16 -3.60811265E-01 -7.34525824E-16
 -1.19553970E+00  2.03381532E-15  2.19709782E-15  4.00640203E-02 -1.93419348E-15
 -3.78422524E+00 -2.10356018E-15 -1.90961292E+00 -5.50409957E-01 -2.01270979E-01
 -1.05378928E-15 -1.01508316E+00 -8.77659098E-16 -2.71237308E+00 -3.91672268E+00
  4.66191705E-17 -3.60811265E-01 -2.18572891E-15  1.19553970E+00 -1.67472914E-14
  9.60100328E-15  4.00640203E-02 -1.99214300E-15 -3.78422524E+00 -1.89190535E-15
  1.90961292E+00 -5.50409957E-01  2.01270979E-01  1.74039801E-15  1.01508316E+00
 -3.30503580E-15 -2.71237308E+00  3.91672268E+00
HyperPolarizability                        R   N=          10
 -8.89158489E-15  1.12406719E-13 -2.82703147E-14  1.32659651E-12 -4.34810533E-14
 -8.84445494E-15  2.81631525E-14 -1.73612259E-14  1.62331856E-13  4.13669099E-13
